# vtk DataFile Version 3.0
vtk output
ASCII
DATASET POLYDATA
POINTS 642 float
-7.66466 6.54815 9.70946 -12.9434 6.25185 7.29797 -17.3959 8.95025 12.2417 
-11.2303 9.80305 15.3362 -12.8762 -6.31259 21.992 -9.61289 18.152 0.170808 
-15.6506 16.2062 -3.4067 -16.4956 -7.13568 21.7324 -11.9238 -3.10466 13.9779 
-15.4674 3.58511 21.9695 -16.2002 19.2087 8.01082 -8.27637 9.04932 -2.7211 
-15.2588 -14.8295 23.8537 -14.4963 -8.83129 19.3378 -12.2233 -8.3976 19.2297 
-14.0944 -2.06573 23.6489 -15.7938 -2.56189 22.933 -8.00567 15.5089 -1.5617 
-12.075 13.7772 -4.25805 -12.1184 19.6647 -3.23759 -16.0943 19.6476 1.70425 
-14.097 20.2481 3.73917 -8.47433 8.84131 12.1481 -11.6679 2.45809 18.8623 
-9.99477 0.0918859 15.3026 -5.85467 12.0322 3.3533 -8.75164 15.4917 6.48324 
-15.1765 7.75055 9.00005 -15.1618 -1.07235 14.8855 -17.3489 0.882644 17.1007 
-17.1284 15.1968 3.3637 -14.0868 10.7998 0.597895 -8.60622 3.42032 5.90884 
-5.92606 6.10137 1.55213 -9.25239 1.60581 11.5324 -12.1362 0.657489 11.2101 
-9.5576 5.80598 0.35647 -14.3009 7.25879 20.5226 -14.6961 18.1953 10.5107 
-16.4411 12.5196 16.1511 -17.4632 15.1506 9.18734 -17.5491 6.71256 18.3469 
-13.7764 -10.8783 23.6036 -13.418 -15.8375 21.629 -12.5496 -8.9174 21.1432 
-16.2457 -13.2165 22.9429 -15.8108 -10.342 20.8504 -15.0782 -17.179 21.0687 
-13.2052 -10.3163 19.3886 -13.203 -6.1905 16.5742 -12.0072 -6.31418 16.7686 
-13.418 -4.48295 23.3114 -14.3247 -6.60719 24.5103 -14.9475 0.654081 23.1389 
-15.7917 0.370365 22.4734 -14.8347 -2.89787 24.0859 -15.4591 -7.085 24.1734 
-16.1422 -5.19074 22.734 -8.32169 17.3875 -1.27163 -9.86531 18.1798 -3.19566 
-10.9391 19.5999 -1.96986 -8.34202 12.5806 -1.59804 -10.452 11.7032 -3.45869 
-9.95863 15.292 -3.20934 -11.8273 17.313 -4.62235 -13.8462 15.2313 -4.77294 
-13.7634 18.4235 -3.98723 -13.4091 20.7372 -0.717827 -12.433 19.5592 1.30442 
-16.0251 18.3422 -1.30012 -14.6285 20.2099 -1.60711 -15.1177 20.8013 2.24116 
-16.2999 19.8418 5.36399 -15.3483 20.1146 6.24788 -8.04518 7.89579 11.0617 
-8.97792 5.62468 14.021 -8.84502 4.75463 12.7385 -9.30431 9.3998 13.4633 
-11.7052 6.66747 17.3588 -9.79641 6.2028 15.6634 -10.3135 0.922679 16.8731 
-12.136 -2.10537 20.1633 -11.3465 -4.42559 18.8361 -6.36337 8.44316 5.72075 
-7.00312 9.94232 7.52085 -6.89901 15.4278 1.44984 -9.10243 16.6331 3.61932 
-7.06289 13.7497 4.92142 -7.68223 11.4038 9.16274 -8.98123 12.7644 10.5216 
-16.3505 8.14338 10.5364 -16.1904 4.25801 13.1086 -17.3622 5.67596 14.4965 
-14.0747 7.15958 7.93917 -13.5558 2.34288 11.4383 -14.6341 3.01946 12.1393 
-16.3789 -0.52596 16.2328 -16.1434 -3.86348 18.3504 -16.8233 -2.38942 19.28 
-17.3313 12.0302 7.59972 -16.2605 11.4286 6.29031 -16.3977 15.7819 0.275934 
-15.0632 13.5701 -1.61579 -15.3404 13.632 2.00807 -14.5972 10.1598 4.99401 
-13.0738 8.45473 3.79243 -10.1787 0.968355 10.4239 -8.82198 2.58056 9.13398 
-10.5255 -1.30153 13.0272 -7.37827 4.19025 0.114646 -6.54224 7.45418 -1.00958 
-6.95782 4.00407 2.86426 -7.44397 4.31548 7.2791 -6.46303 6.01698 5.34553 
-8.30283 4.42334 10.7097 -12.1696 -1.45091 12.7314 -10.5391 2.38753 8.75776 
-12.4201 3.32034 9.26482 -11.122 6.38582 4.34433 -10.8389 4.5593 6.45939 
-8.49869 4.09765 2.56356 -9.04474 7.08955 -2.60342 -14.7292 5.27322 21.8266 
-15.2127 10.1177 19.0503 -15.874 8.23607 20.1013 -13.4536 9.04559 18.0657 
-12.7242 12.4898 14.8149 -14.3657 11.6892 17.1677 -15.7825 15.5786 14.0356 
-15.5506 19.1056 9.12834 -16.4589 17.474 11.6234 -16.9751 9.86765 17.8746 
-16.5566 4.88466 20.5008 -16.9207 17.903 8.39291 -17.2449 14.3097 12.8575 
-17.7896 11.0607 14.4407 -17.6641 11.3616 11.1339 -17.8387 8.51868 15.2786 
-10.9045 -4.11308 15.6244 -9.74623 0.564893 13.5374 -11.0681 -5.46965 17.8509 
-6.25938 11.4352 -0.224231 -6.24667 14.2589 0.342875 -5.48388 9.48487 2.20746 
-13.3579 -0.217179 21.8031 -13.446 4.50751 20.4946 -14.2908 2.3984 22.4912 
-11.9677 18.1535 5.4023 -14.4984 19.2192 7.2437 -12.1256 17.4817 7.8862 
-15.2027 -4.80485 17.3368 -13.7563 -0.695584 13.2441 -13.8429 -3.66306 14.768 
-13.6407 11.8009 -3.29815 -11.5978 9.6863 -4.20496 -12.2635 8.23011 -0.445328 
-16.9425 -1.00504 20.1775 -16.876 1.6613 20.4663 -17.7833 3.40887 17.7515 
-17.0614 17.4199 2.10584 -18.0065 15.5481 5.67246 -17.4013 18.1787 5.34385 
-13.3219 -8.37637 23.1264 -13.0991 -10.8647 22.5819 -12.7529 -7.89593 21.7682 
-14.4425 -13.3323 23.8505 -14.6089 -16.9068 23.02 -13.7019 -14.7693 22.9599 
-12.8303 -12.278 21.5815 -12.6936 -11.5439 20.5262 -12.3711 -8.99944 20.2468 
-15.9322 -14.9479 23.5258 -16.1092 -16.8999 22.264 -15.5532 -17.5256 22.7036 
-16.4111 -9.99652 22.4433 -16.3165 -9.11535 21.4903 -16.1835 -13.5933 21.7509 
-15.4513 -14.9671 20.7576 -15.1483 -10.0416 20.1475 -14.5192 -13.2127 19.9539 
-12.6938 -9.62078 19.4292 -12.6474 -8.07778 18.3044 -12.0801 -7.48426 18.0897 
-13.8321 -10.0695 19.3674 -13.8343 -7.52046 18.1137 -13.2481 -8.13285 18.3237 
-12.5996 -6.4852 16.7706 -12.6325 -4.71122 15.1356 -12.0385 -4.8086 15.3221 
-14.2954 -17.3276 21.4022 -13.7833 -14.5178 19.9402 -13.1162 -13.7776 20.2105 
-13.1828 -5.53124 22.7879 -13.6348 -7.10897 23.7671 -13.6995 -3.31757 23.5947 
-14.0239 -4.26278 24.2598 -13.8238 -5.6467 24.151 -14.1745 -8.64682 24.1743 
-14.7471 -9.80337 24.2165 -14.553 -0.731893 23.4876 -14.9028 -1.15428 23.6266 
-14.435 -2.61777 24.057 -15.2191 2.07464 22.6305 -15.6843 1.92965 22.2193 
-15.3474 0.410201 22.9811 -15.3186 -1.29497 23.3863 -15.7933 -1.13192 22.7413 
-15.2836 -2.88807 23.7208 -15.4287 -10.3269 24.0027 -15.9104 -9.73922 23.6433 
-15.4538 -4.7159 23.8529 -15.9033 -3.90943 22.9465 -15.8175 -6.34796 23.6413 
-16.2352 -8.23367 23.1407 -16.3991 -6.35548 22.3206 -14.4807 -4.72607 24.5228 
-14.979 -4.89543 24.3768 -14.9187 -7.12338 24.5015 -8.84134 17.9025 -0.71825 
-9.58841 18.6449 -1.79944 -10.3785 19.0631 -1.02153 -8.05302 16.5907 -1.53809 
-8.89214 17.0412 -2.5093 -9.09763 17.9647 -2.30705 -10.259 19.0163 -2.73033 
-10.9327 19.0378 -3.43816 -11.4891 19.7929 -2.68547 -8.13715 14.1535 -1.47914 
-9.20085 14.055 -2.267 -8.95231 15.5925 -2.41975 -8.42873 10.8835 -2.16574 
-9.44528 10.5313 -3.18917 -9.44666 12.2672 -2.4966 -10.283 13.5681 -3.08676 
-11.2834 12.7961 -3.78679 -11.0219 14.6591 -3.86919 -11.8376 18.6461 -4.09777 
-12.7449 17.9523 -4.53212 -12.8673 19.2094 -3.67587 -11.9658 15.6865 -4.65734 
-12.9267 14.5869 -4.67412 -12.8429 16.3702 -4.93442 -13.8154 16.925 -4.7363 
-14.7906 15.7497 -4.38214 -14.7742 17.3651 -4.00854 -9.78383 16.9322 -3.39959 
-10.8356 16.4525 -4.15716 -10.7706 17.9463 -4.00509 -11.7392 19.7773 -0.628034 
-11.0965 18.9053 0.590783 -12.6931 20.3652 -2.11924 -12.2086 20.26 -1.51292 
-13.0164 20.3727 0.104982 -13.9208 20.705 1.168 -13.3987 20.0199 2.37558 
-14.1599 19.4367 -2.89743 -13.4091 20.0624 -2.62456 -15.9064 17.3259 -2.51889 
-15.0609 18.4534 -2.94794 -15.3324 19.4151 -1.60981 -16.0716 19.1395 0.0889852 
-15.5143 20.0656 -0.176689 -14.6385 20.7508 2.86585 -15.2019 20.5698 4.45811 
-14.7407 20.2851 5.11664 -15.5953 20.4246 1.86057 -16.1741 19.8825 3.57085 
-15.6737 20.4308 3.91907 -15.8168 20.1662 5.8255 -16.319 19.5491 6.80035 
-15.8439 19.734 7.14864 -13.9688 20.7107 -1.26475 -14.9752 20.734 0.0638909 
-14.443 20.958 0.508241 -7.85545 7.26839 10.4351 -8.33755 6.5351 12.2177 
-8.25777 5.94641 11.6097 -8.24064 8.41792 11.6119 -8.63528 7.48471 13.3182 
-8.45364 7.05233 12.7989 -8.89662 5.21103 13.377 -9.54769 3.34021 14.2911 
-9.51041 2.8488 13.687 -8.8008 9.16849 12.7436 -9.53882 8.15538 14.5459 
-9.01069 7.8987 13.9415 -10.0973 9.56726 14.3422 -11.4452 8.57962 16.1627 
-10.3658 8.3569 15.2968 -10.6262 6.35857 16.5036 -11.7891 4.46709 18.3418 
-10.7651 4.18327 17.2718 -10.0978 0.352843 16.0764 -10.7544 -2.00628 17.9199 
-10.5266 -2.65581 17.2575 -10.798 1.65059 17.8074 -11.7434 0.28059 19.4199 
-11.1214 -0.914362 18.6031 -11.7309 -3.49713 19.5185 -12.5542 -4.26908 21.0386 
-12.2198 -5.47919 20.3963 -9.2535 5.90602 14.8354 -10.0698 3.75454 16.227 
-9.71954 3.48531 15.1884 -6.97153 7.31074 7.58199 -7.26101 8.08398 8.45162 
-6.00902 10.1135 4.42762 -6.39709 10.8368 5.35552 -6.67076 9.23944 6.62162 
-7.55616 8.8049 9.25514 -7.81606 9.38436 9.96624 -6.10158 13.8271 2.32346 
-6.83624 14.5738 3.09841 -6.39774 12.9395 4.08214 -8.14622 16.8817 0.775524 
-9.44555 17.4293 1.79541 -7.90109 16.0901 2.32319 -7.78789 15.2646 4.15794 
-8.85166 16.0062 5.21794 -7.80114 14.5803 5.7532 -8.13018 9.9292 10.7916 
-8.49526 10.2823 11.5725 -7.84059 13.5768 7.54622 -8.71928 14.7252 7.86218 
-8.14397 12.0715 9.78026 -9.1121 10.5428 12.5523 -10.1028 10.7736 13.6586 
-6.81307 11.7846 6.11554 -7.2765 12.6997 6.87279 -7.31829 10.7266 8.34144 
-16.9217 8.46629 11.4015 -16.7931 7.23111 12.3269 -17.3369 7.75384 13.2523 
-15.7549 7.93676 9.71748 -15.4786 6.42258 10.6953 -16.1253 6.78753 11.432 
-16.8499 4.90181 13.7679 -17.0214 2.0998 15.4569 -17.4641 2.86219 16.0065 
-14.6207 7.50259 8.40729 -14.255 5.51971 9.6762 -14.7839 5.96455 10.0511 
-13.5202 6.73251 7.57966 -13.2787 4.57248 9.17033 -13.7483 5.04023 9.38674 
-14.0654 2.59911 11.829 -14.3637 0.33247 13.3994 -14.9388 0.558734 13.8557 
-16.913 0.0571707 16.7206 -16.7119 -1.40636 17.689 -17.0887 -0.663299 18.0864 
-15.7871 -0.901305 15.6152 -15.7091 -2.31805 16.4233 -16.2375 -1.97543 17.1356 
-16.5463 -3.29995 18.9574 -16.413 -5.60009 20.3199 -16.5958 -4.5559 20.6577 
-15.4031 3.49234 12.6323 -15.6922 0.729855 14.5263 -16.4245 1.23737 15.074 
-17.2321 9.90795 10.4155 -16.8003 9.5722 9.66767 -17.4604 14.1516 4.96044 
-16.7839 13.6868 4.40036 -16.8921 11.7916 6.85427 -16.253 9.38507 8.86026 
-15.659 9.24991 8.11131 -16.6665 15.6357 1.95702 -15.8927 14.7729 1.12648 
-16.2344 14.5928 2.62906 -16.2306 15.8946 -1.6826 -15.5871 14.8461 -2.79012 
-15.8069 14.7532 -0.812101 -15.1327 13.6013 0.34485 -14.4944 12.2309 -0.451134 
-14.6461 12.3087 1.35552 -14.9184 9.00808 7.29713 -14.2743 8.65247 6.68379 
-14.278 10.6284 2.70257 -13.6272 9.48025 1.95534 -13.8812 9.34902 4.35163 
-13.5771 8.1324 6.14155 -12.8418 7.54003 5.68368 -15.8528 13.1004 3.75417 
-14.9643 12.0045 3.21858 -15.4298 10.9583 5.59193 -11.0596 -1.00995 12.3598 
[...]
POINT_DATA 642
VECTORS velocity double
0.171799 -0.198229 -0.20518 0.153307 -0.143227 -0.135455 0.154912 -0.188132 -0.191296 
0.125952 -0.227517 -0.266093 0.0605404 -0.147773 -0.247576 0.153725 -0.130365 -0.148127 
0.187913 -0.161848 -0.149428 0.0677747 -0.12013 -0.208762 0.11065 -0.139047 -0.162001 
0.0907874 -0.120472 -0.161644 0.139143 -0.1797 -0.131035 0.175094 -0.0922949 -0.124779 
0.0026221 -0.0945965 -0.140465 0.0842467 -0.138792 -0.218969 0.0706036 -0.148395 -0.235569 
0.0720549 -0.130093 -0.211422 0.0699961 -0.109509 -0.178368 0.161533 -0.128219 -0.1447 
0.166085 -0.117595 -0.136294 0.14128 -0.123948 -0.129677 0.189099 -0.185658 -0.137613 
0.16957 -0.165051 -0.128197 0.163979 -0.233937 -0.260618 0.145302 -0.194317 -0.253806 
0.14351 -0.189835 -0.226509 0.204849 -0.167272 -0.180931 0.188131 -0.212674 -0.192405 
0.149004 -0.160769 -0.146488 0.119505 -0.139536 -0.162495 0.130702 -0.144879 -0.172604 
0.210488 -0.175242 -0.147602 0.225532 -0.111892 -0.147255 0.151735 -0.135287 -0.137455 
0.161785 -0.11495 -0.131053 0.139258 -0.181979 -0.187665 0.114701 -0.143677 -0.141234 
0.194959 -0.0806052 -0.124189 0.122504 -0.17852 -0.228705 0.110992 -0.199282 -0.177828 
0.10453 -0.170233 -0.177807 0.136415 -0.190227 -0.158116 0.119559 -0.149303 -0.181731 
0.00689905 -0.110177 -0.183001 0.00843769 -0.110032 -0.162638 0.0512118 -0.14726 -0.247108 
0.0123225 -0.106888 -0.188718 0.0619469 -0.130335 -0.226586 0.00995565 -0.105999 -0.15811 
0.0611939 -0.139368 -0.229107 0.103687 -0.13923 -0.191864 0.0993104 -0.146072 -0.205859 
0.0571005 -0.134778 -0.230533 0.0215444 -0.104044 -0.198409 0.0836718 -0.121019 -0.178558 
0.0818376 -0.111765 -0.161941 0.0548595 -0.110006 -0.19057 0.019642 -0.0925329 -0.182324 
0.0542493 -0.105131 -0.188063 0.145503 -0.123621 -0.141087 0.135199 -0.117249 -0.131658 
0.144087 -0.124189 -0.136399 0.174725 -0.114917 -0.139023 0.185661 -0.105094 -0.138762 
0.157122 -0.121862 -0.138049 0.139592 -0.121432 -0.129613 0.162494 -0.132263 -0.136555 
0.155218 -0.137302 -0.135134 0.164529 -0.145928 -0.132191 0.175854 -0.157082 -0.146346 
0.196623 -0.180046 -0.147093 0.167171 -0.150193 -0.129928 0.168011 -0.162653 -0.122192 
0.171474 -0.187897 -0.134164 0.162517 -0.178892 -0.129536 0.169649 -0.218399 -0.233957 
0.172592 -0.226019 -0.255879 0.164446 -0.212749 -0.230179 0.150103 -0.239118 -0.275894 
0.148378 -0.218078 -0.272974 0.166916 -0.230327 -0.276898 0.151256 -0.199611 -0.249825 
0.114982 -0.173685 -0.244967 0.111938 -0.173312 -0.24377 0.203913 -0.179453 -0.190468 
0.195255 -0.209443 -0.214885 0.183999 -0.155427 -0.170574 0.189525 -0.171959 -0.172642 
0.211118 -0.200135 -0.198733 0.172336 -0.231863 -0.23713 0.141028 -0.234636 -0.238591 
0.150473 -0.172285 -0.162606 0.137306 -0.159353 -0.160727 0.144911 -0.167914 -0.182344 
0.151676 -0.151543 -0.139099 0.123627 -0.151138 -0.147027 0.130645 -0.156067 -0.153361 
0.12879 -0.145018 -0.171877 0.120846 -0.140746 -0.184202 0.117008 -0.133498 -0.177775 
0.170025 -0.189826 -0.169118 0.167755 -0.162573 -0.142974 0.218559 -0.181914 -0.156748 
0.201117 -0.139739 -0.14826 0.22566 -0.148539 -0.150945 0.179767 -0.14562 -0.135604 
0.198149 -0.129944 -0.137181 0.125712 -0.161117 -0.15779 0.138724 -0.17108 -0.166292 
0.121041 -0.155754 -0.168003 0.141138 -0.0789062 -0.102169 0.157334 -0.100457 -0.121074 
0.154801 -0.102629 -0.120052 0.163862 -0.161865 -0.164021 0.192387 -0.152386 -0.166537 
0.155647 -0.197295 -0.201131 0.108352 -0.134603 -0.14395 0.129573 -0.154181 -0.145798 
0.130179 -0.151685 -0.141422 0.184701 -0.122519 -0.134088 0.151464 -0.134594 -0.133096 
0.168495 -0.0943596 -0.119378 0.178121 -0.0757158 -0.117896 0.110378 -0.148552 -0.195322 
0.108052 -0.172446 -0.20554 0.111054 -0.154062 -0.189925 0.119497 -0.202651 -0.250242 
0.108757 -0.218156 -0.229878 0.10261 -0.196782 -0.22104 0.104669 -0.188393 -0.178949 
0.124903 -0.182585 -0.141984 0.111828 -0.178957 -0.150836 0.109368 -0.153094 -0.177232 
0.0992084 -0.126776 -0.163314 0.137273 -0.185531 -0.139109 0.110149 -0.170076 -0.15566 
0.118144 -0.167568 -0.175656 0.143466 -0.194165 -0.18852 0.138993 -0.172741 -0.194182 
0.114529 -0.15564 -0.197144 0.139417 -0.183332 -0.203383 0.104049 -0.163616 -0.230988 
0.164456 -0.121649 -0.138398 0.171722 -0.13745 -0.153746 0.183447 -0.1413 -0.157484 
0.105846 -0.157271 -0.226896 0.134319 -0.183399 -0.241706 0.102862 -0.141283 -0.197223 
0.181227 -0.183202 -0.152553 0.156799 -0.187111 -0.141563 0.147418 -0.209661 -0.180121 
0.11546 -0.139016 -0.181741 0.109307 -0.131729 -0.143808 0.108781 -0.132377 -0.162036 
0.191882 -0.111437 -0.14118 0.195341 -0.0871391 -0.133497 0.217367 -0.0869858 -0.13703 
0.106959 -0.12466 -0.169294 0.0952692 -0.116511 -0.154827 0.128703 -0.148874 -0.181014 
0.215037 -0.206622 -0.156829 0.18818 -0.206378 -0.160109 0.181409 -0.204826 -0.148103 
0.0276287 -0.129262 -0.22861 0.0183401 -0.128028 -0.214908 0.0512989 -0.146363 -0.248451 
0.00245672 -0.0978431 -0.14912 0.00355567 -0.0902785 -0.121401 0.00432454 -0.102269 -0.148151 
0.0231936 -0.132376 -0.218678 0.0399237 -0.139157 -0.232908 0.0589617 -0.14823 -0.243259 
0.00444661 -0.0985389 -0.153255 0.00645921 -0.0982963 -0.142976 0.00414024 -0.0878509 -0.117557 
0.0294775 -0.107061 -0.203297 0.059641 -0.123754 -0.219552 0.024424 -0.116692 -0.208737 
0.0287674 -0.123409 -0.213842 0.0718569 -0.135808 -0.226427 0.0453743 -0.131334 -0.226483 
0.0623637 -0.142868 -0.232395 0.0814441 -0.143721 -0.221265 0.0845402 -0.147752 -0.223545 
0.0681352 -0.138277 -0.226398 0.0954866 -0.139657 -0.206651 0.0852813 -0.141168 -0.216365 
0.0998553 -0.142304 -0.200646 0.108162 -0.138239 -0.176084 0.108784 -0.142652 -0.183281 
0.0066551 -0.0989339 -0.139026 0.0327193 -0.12923 -0.21757 0.0310294 -0.131615 -0.218921 
0.0554409 -0.139912 -0.239228 0.0280379 -0.121132 -0.220578 0.0634677 -0.13219 -0.222069 
0.0440407 -0.11582 -0.208209 0.0340958 -0.116206 -0.213395 0.0129279 -0.108912 -0.199448 
0.0081825 -0.102861 -0.187163 0.0794342 -0.126169 -0.196132 0.0727095 -0.117888 -0.187427 
0.0600953 -0.118207 -0.200818 0.0863582 -0.117981 -0.165163 0.0840039 -0.112519 -0.156035 
0.080383 -0.114691 -0.169277 0.071914 -0.112694 -0.178586 0.0779582 -0.111712 -0.171048 
0.0578754 -0.107045 -0.183332 0.0095391 -0.100465 -0.186779 0.0147257 -0.0983702 -0.189474 
0.0396786 -0.0978385 -0.181671 0.0604934 -0.106207 -0.18307 0.02957 -0.0940634 -0.181967 
0.0260778 -0.0975408 -0.18983 0.055466 -0.109442 -0.196961 0.0342858 -0.103761 -0.193675 
0.0325726 -0.0974534 -0.184291 0.0174038 -0.0963189 -0.187913 0.145012 -0.123146 -0.142043 
0.138429 -0.118605 -0.135853 0.147046 -0.125536 -0.140989 0.152292 -0.127146 -0.143097 
0.145673 -0.12297 -0.138088 0.138708 -0.119049 -0.135447 0.135429 -0.117335 -0.131976 
0.134061 -0.117297 -0.129066 0.141631 -0.123224 -0.132156 0.169591 -0.123505 -0.143406 
0.171128 -0.12088 -0.14254 0.158686 -0.125115 -0.141463 0.17756 -0.104938 -0.133264 
0.184381 -0.0979557 -0.132917 0.180997 -0.110699 -0.139496 0.172841 -0.11682 -0.140724 
0.17726 -0.112231 -0.139553 0.159157 -0.119334 -0.136021 0.136384 -0.120222 -0.128329 
0.143571 -0.126487 -0.130993 0.145356 -0.128311 -0.13053 0.149436 -0.122121 -0.132032 
0.160427 -0.123551 -0.134533 0.149076 -0.126967 -0.132432 0.156457 -0.136118 -0.136366 
0.172157 -0.144937 -0.142103 0.170538 -0.150043 -0.142408 0.142971 -0.120916 -0.134345 
0.143737 -0.120494 -0.131947 0.134791 -0.117691 -0.129196 0.161549 -0.139692 -0.144532 
0.166398 -0.143539 -0.151365 0.15318 -0.134018 -0.132714 0.156738 -0.136264 -0.137829 
0.170159 -0.151136 -0.138477 0.167977 -0.154409 -0.127712 0.173196 -0.161053 -0.134663 
0.161878 -0.143742 -0.13421 0.154303 -0.136117 -0.130979 0.194534 -0.173309 -0.150867 
0.176459 -0.157457 -0.141776 0.179137 -0.16262 -0.136428 0.193791 -0.183052 -0.141352 
0.17776 -0.165612 -0.130221 0.166482 -0.161094 -0.122694 0.167758 -0.171634 -0.125397 
0.16755 -0.172461 -0.127913 0.175468 -0.170872 -0.127145 0.182444 -0.1881 -0.135931 
0.172701 -0.17697 -0.128157 0.165096 -0.180979 -0.129602 0.155974 -0.184039 -0.131569 
0.152027 -0.180582 -0.13002 0.162256 -0.14461 -0.128214 0.167756 -0.15503 -0.123614 
0.164971 -0.1517 -0.123015 0.171282 -0.208774 -0.219531 0.167961 -0.219335 -0.235657 
0.165129 -0.211435 -0.222225 0.167272 -0.22691 -0.247889 0.168374 -0.232585 -0.262255 
0.169162 -0.22674 -0.249614 0.169443 -0.219751 -0.242999 0.163634 -0.210867 -0.241368 
0.157081 -0.203686 -0.228353 0.158697 -0.238491 -0.270733 0.157518 -0.2364 -0.2801 
0.164374 -0.23668 -0.274403 0.138416 -0.235139 -0.274217 0.135568 -0.223675 -0.272799 
0.147085 -0.231737 -0.279545 0.158645 -0.225674 -0.277791 0.153069 -0.207853 -0.26532 
0.161728 -0.215259 -0.268951 0.14795 -0.195418 -0.239205 0.133141 -0.185552 -0.243485 
0.129567 -0.180694 -0.234435 0.15022 -0.199238 -0.25516 0.13196 -0.183188 -0.246604 
0.134519 -0.187075 -0.24829 0.113684 -0.175053 -0.246973 0.0904141 -0.161868 -0.246934 
0.088116 -0.162899 -0.249727 0.172343 -0.230223 -0.268674 0.167153 -0.217526 -0.264647 
0.167356 -0.215494 -0.254108 0.189816 -0.187452 -0.196666 0.185611 -0.201166 -0.210622 
0.208194 -0.172766 -0.185315 0.210884 -0.190656 -0.19733 0.201526 -0.195514 -0.203093 
0.18011 -0.213459 -0.224701 0.174175 -0.223826 -0.238052 0.198396 -0.16402 -0.177575 
0.204601 -0.178435 -0.1867 0.212322 -0.185436 -0.192264 0.163578 -0.138611 -0.157236 
0.172542 -0.148413 -0.161446 0.186167 -0.161061 -0.174141 0.202676 -0.18769 -0.187994 
0.195143 -0.19431 -0.18125 0.202026 -0.208262 -0.197921 0.166039 -0.233763 -0.252558 
0.156695 -0.238904 -0.261555 0.182854 -0.225504 -0.214966 0.166976 -0.225663 -0.210266 
0.15794 -0.23596 -0.240989 0.143651 -0.239251 -0.264312 0.12948 -0.23448 -0.25888 
0.208159 -0.206365 -0.206488 0.198525 -0.218523 -0.212585 0.185885 -0.222079 -0.22657 
0.153746 -0.180732 -0.176692 0.147394 -0.172564 -0.172848 0.150043 -0.178143 -0.18635 
0.148833 -0.165777 -0.152819 0.143367 -0.163679 -0.153655 0.1445 -0.167202 -0.161093 
0.140871 -0.162655 -0.169893 0.136086 -0.15279 -0.169825 0.13875 -0.15629 -0.177768 
0.150207 -0.156181 -0.142182 0.141516 -0.157487 -0.145305 0.142752 -0.160337 -0.148314 
0.152815 -0.147106 -0.136931 0.137259 -0.152527 -0.141324 0.139509 -0.154713 -0.142965 
0.126583 -0.153183 -0.150272 0.116879 -0.139205 -0.150548 0.122295 -0.143684 -0.157087 
0.129951 -0.14431 -0.171347 0.125277 -0.140226 -0.174791 0.123717 -0.137454 -0.171827 
0.125204 -0.143635 -0.16935 0.122504 -0.1416 -0.173938 0.125302 -0.142393 -0.176436 
0.119662 -0.137836 -0.182917 0.106363 -0.135042 -0.198774 0.102292 -0.129264 -0.192258 
0.134289 -0.157723 -0.156234 0.12849 -0.147956 -0.163863 0.133059 -0.150357 -0.166671 
0.160938 -0.192664 -0.185444 0.15786 -0.180248 -0.16766 0.194047 -0.179709 -0.149744 
0.198805 -0.165636 -0.144192 0.16808 -0.174021 -0.152742 0.154521 -0.169049 -0.153343 
0.153864 -0.161347 -0.144795 0.218759 -0.17866 -0.152466 0.221282 -0.163393 -0.153471 
0.218992 -0.162278 -0.148673 0.207154 -0.176358 -0.155692 0.193255 -0.154338 -0.149076 
0.210473 -0.161783 -0.153671 0.218022 -0.143715 -0.151915 0.213075 -0.122926 -0.147935 
0.227539 -0.13093 -0.150719 0.156032 -0.154474 -0.138944 0.159777 -0.14918 -0.136131 
0.224772 -0.130846 -0.145893 0.228605 -0.116528 -0.14537 0.189483 -0.138267 -0.136095 
0.164833 -0.143612 -0.134669 0.17017 -0.137971 -0.13422 0.209264 -0.154197 -0.143652 
0.218994 -0.143042 -0.145375 0.172715 -0.153235 -0.137391 0.115699 -0.147006 -0.153585 
0.122774 -0.158335 -0.161724 0.114646 -0.145486 -0.163234 0.134832 -0.158701 -0.151728 
0.142448 -0.155893 -0.151065 0.132181 -0.167773 -0.163315 0.131007 -0.170213 -0.171271 
0.138762 -0.179086 -0.178804 0.129662 -0.169029 -0.177018 0.157625 -0.0982049 -0.117981 
0.141483 -0.0875965 -0.106648 0.161241 -0.116397 -0.129725 0.156079 -0.0816634 -0.110534 
0.16571 -0.0958917 -0.122223 0.144238 -0.0857904 -0.107411 0.140224 -0.092529 -0.109265 
0.154055 -0.106352 -0.123057 0.150953 -0.103534 -0.11962 0.147471 -0.184346 -0.183164 
0.156301 -0.183796 -0.183357 0.148174 -0.19177 -0.196283 0.176276 -0.126329 -0.142708 
0.180989 -0.129434 -0.146937 0.180421 -0.153713 -0.163356 0.169534 -0.180082 -0.183395 
0.184062 -0.177551 -0.185572 0.162953 -0.198766 -0.2032 0.156278 -0.144642 -0.146891 
0.169737 -0.130949 -0.142763 0.148727 -0.168797 -0.165439 0.109009 -0.135622 -0.151597 
0.115904 -0.147307 -0.14896 0.11002 -0.137258 -0.140462 0.122227 -0.152637 -0.14563 
0.118237 -0.149998 -0.146871 0.126804 -0.158803 -0.152234 0.138872 -0.148088 -0.142318 
0.121676 -0.15064 -0.143262 0.139122 -0.144657 -0.136525 0.129275 -0.151023 -0.14151 
0.141571 -0.146742 -0.137279 0.166018 -0.135146 -0.133861 0.152784 -0.138278 -0.133939 
0.167813 -0.127198 -0.132494 0.200722 -0.100652 -0.132155 0.182708 -0.109155 -0.129789 
0.16177 -0.113016 -0.126793 0.153244 -0.0812534 -0.107826 0.178829 -0.0837651 -0.118633 
0.183971 -0.0737741 -0.118653 0.164559 -0.0742678 -0.109772 0.156879 -0.0750107 -0.107465 
0.176099 -0.0826351 -0.120474 0.137772 -0.144661 -0.137744 0.166168 -0.118445 -0.129529 
0.150525 -0.132625 -0.133616 0.0995896 -0.132701 -0.176496 0.111805 -0.152081 -0.19435 
0.104691 -0.138741 -0.179019 0.118932 -0.164592 -0.213717 0.114727 -0.175454 -0.218429 
0.115778 -0.165068 -0.208369 0.110889 -0.163398 -0.198231 0.104736 -0.171067 -0.191987 
0.106788 -0.161702 -0.186252 0.121564 -0.1906 -0.240284 0.108121 -0.198797 -0.236399 
0.110241 -0.187183 -0.22802 0.120352 -0.215449 -0.259365 0.115872 -0.223708 -0.25088 
0.110045 -0.211885 -0.24492 0.10413 -0.208109 -0.226471 0.106772 -0.209609 -0.203914 
0.102289 -0.202904 -0.205132 0.104858 -0.180249 -0.178549 0.107726 -0.182677 -0.162521 
0.106615 -0.175581 -0.164216 0.104877 -0.194383 -0.1788 0.118021 -0.18961 -0.15649 
0.109857 -0.187138 -0.159855 0.116096 -0.181611 -0.145845 0.131557 -0.17919 -0.133878 
0.12286 -0.179439 -0.138195 0.103805 -0.183901 -0.212967 0.102171 -0.193793 -0.201043 
0.102963 -0.182811 -0.196672 0.106702 -0.140412 -0.177674 0.0928466 -0.120976 -0.159241 
0.105675 -0.160059 -0.176663 0.109559 -0.152582 -0.182787 0.110388 -0.144687 -0.178474 
0.114624 -0.150334 -0.179898 0.108921 -0.13712 -0.172135 0.110802 -0.174267 -0.152058 
0.106033 -0.168894 -0.164309 0.137482 -0.181875 -0.133704 0.121644 -0.179812 -0.141507 
0.120383 -0.17884 -0.146683 0.137226 -0.188796 -0.147053 0.119371 -0.177028 -0.15397 
0.120865 -0.159382 -0.182499 0.128447 -0.170006 -0.186667 0.129554 -0.161289 -0.189283 
0.121467 -0.177307 -0.167376 0.137474 -0.191801 -0.173285 0.128104 -0.179807 -0.180905 
0.139371 -0.1831 -0.192729 0.151987 -0.19422 -0.196172 0.147986 -0.182816 -0.19579 
0.106666 -0.162066 -0.16819 0.11159 -0.167336 -0.164338 0.111561 -0.157961 -0.173886 
0.112655 -0.146702 -0.180602 0.126409 -0.165005 -0.182895 0.118369 -0.153706 -0.179315 
0.106095 -0.150135 -0.202281 0.0955837 -0.152747 -0.220205 0.150765 -0.196321 -0.207145 
0.139322 -0.182672 -0.19507 0.15983 -0.206147 -0.216465 0.153601 -0.199881 -0.217492 
0.140537 -0.185517 -0.214008 0.0849933 -0.155321 -0.235487 0.0803327 -0.157399 -0.244309 
0.124105 -0.174088 -0.225205 0.106014 -0.168199 -0.238967 0.0810005 -0.159664 -0.249247 
0.125076 -0.165943 -0.195297 0.123885 -0.169372 -0.211041 0.108434 -0.159511 -0.216305 
0.170284 -0.108391 -0.131679 0.167146 -0.123882 -0.142321 0.168318 -0.116825 -0.1371 
0.164886 -0.113676 -0.132421 0.164452 -0.11987 -0.135972 0.161262 -0.133908 -0.150132 
0.165082 -0.131537 -0.147902 0.159072 -0.134318 -0.152127 0.177534 -0.146411 -0.162236 
0.18521 -0.148693 -0.164922 0.174602 -0.129175 -0.145417 0.19179 -0.14263 -0.159869 
0.193274 -0.152511 -0.168753 0.201006 -0.157245 -0.173098 0.199843 -0.164938 -0.178427 
0.166003 -0.128359 -0.144774 0.173843 -0.138179 -0.153968 0.168023 -0.130368 -0.145341 
0.0861706 -0.155541 -0.240893 0.124906 -0.173919 -0.238261 0.109914 -0.166209 -0.238004 
0.086069 -0.149425 -0.23149 0.0881408 -0.143294 -0.219385 0.143874 -0.20217 -0.259944 
0.139508 -0.188086 -0.248153 0.133845 -0.210838 -0.263972 0.133154 -0.196419 -0.251533 
0.129085 -0.180726 -0.23577 0.0904258 -0.135083 -0.201022 0.0916353 -0.129139 -0.185466 
0.118013 -0.159739 -0.212699 0.105635 -0.142159 -0.192586 0.0940079 -0.127432 -0.175654 
0.120881 -0.165797 -0.227388 0.118526 -0.160467 -0.217677 0.10364 -0.14778 -0.211231 
0.179842 -0.160477 -0.157842 0.175308 -0.172906 -0.138324 0.179734 -0.168575 -0.14683 
0.186348 -0.178131 -0.162313 0.186142 -0.196698 -0.170831 0.159757 -0.181819 -0.133785 
0.169128 -0.179034 -0.134933 0.145718 -0.180702 -0.132508 0.14013 -0.184232 -0.139623 
0.134301 -0.191259 -0.152435 0.169662 -0.213352 -0.18578 0.142728 -0.223483 -0.208439 
0.126127 -0.204303 -0.177502 0.120179 -0.217351 -0.206447 0.121098 -0.228504 -0.237131 
0.171929 -0.187658 -0.14627 0.153342 -0.196216 -0.156197 0.172687 -0.199381 -0.163162 
0.102839 -0.137188 -0.205902 0.118313 -0.138773 -0.170127 0.118463 -0.140558 -0.184566 
0.10267 -0.13885 -0.206242 0.10468 -0.139129 -0.200432 0.114091 -0.13857 -0.143541 
0.113509 -0.134616 -0.153019 0.126172 -0.153284 -0.144572 0.116228 -0.143898 -0.141748 
0.109346 -0.134399 -0.138987 0.107215 -0.137856 -0.188688 0.108161 -0.135855 -0.176307 
0.106234 -0.129682 -0.142237 0.106647 -0.130444 -0.150366 0.107982 -0.133901 -0.162392 
0.11301 -0.134282 -0.161228 0.108174 -0.13013 -0.150577 0.112114 -0.13592 -0.173346 
0.180791 -0.138236 -0.142628 0.177592 -0.115474 -0.138516 0.175247 -0.125173 -0.138815 
0.193678 -0.124331 -0.143832 0.207681 -0.107282 -0.143581 0.190592 -0.0959799 -0.136084 
0.186214 -0.104998 -0.139103 0.187401 -0.0883582 -0.129491 0.190666 -0.0802145 -0.126882 
0.19656 -0.0764881 -0.126722 0.222139 -0.0965721 -0.142315 0.224385 -0.106768 -0.141691 
0.208953 -0.0820388 -0.131105 0.214884 -0.101498 -0.137029 0.193182 -0.125242 -0.135888 
0.194851 -0.0977977 -0.138449 0.203538 -0.0820712 -0.133247 0.206308 -0.0922687 -0.138805 
0.0928559 -0.122225 -0.187594 0.0889866 -0.116099 -0.173124 0.0889532 -0.117887 -0.180351 
0.111807 -0.128645 -0.173945 0.120305 -0.13445 -0.17006 0.0873468 -0.112049 -0.155274 
0.0891955 -0.114355 -0.163727 0.0864421 -0.112016 -0.150969 0.0934169 -0.117167 -0.153563 
0.105808 -0.129293 -0.164642 0.131158 -0.14746 -0.177305 0.140782 -0.161974 -0.187435 
0.124131 -0.148872 -0.182004 0.137435 -0.163668 -0.191909 0.146169 -0.17376 -0.193162 
0.101833 -0.120808 -0.162403 0.109899 -0.129554 -0.165111 0.11644 -0.132601 -0.168275 
0.212355 -0.190753 -0.156934 0.214351 -0.193174 -0.153216 0.219251 -0.196982 -0.157491 
0.211533 -0.198916 -0.154254 0.205371 -0.201976 -0.150448 0.182742 -0.199563 -0.166076 
0.201961 -0.191391 -0.151529 0.162695 -0.202298 -0.190325 0.161852 -0.20582 -0.179651 
0.162486 -0.204873 -0.163196 0.192499 -0.201448 -0.145832 0.176338 -0.196787 -0.140904 
0.161146 -0.200715 -0.14985 0.158385 -0.194833 -0.141742 0.156225 -0.188648 -0.13545 
0.205522 -0.205457 -0.154956 0.187299 -0.209633 -0.155026 0.202685 -0.210229 -0.154168 

